REMARK SMILES CC(C)[NH2+]C[C@H](O)COc1cccc2[nH]c3ccccc3c12
REMARK SMILES IDX 6 1 5 2 4 3 2 6 1 7 3 8 7 9 8 11 9 12 10 13 11 14 22 15
REMARK SMILES IDX 12 16 14 17 21 18 13 19 15 20 16 21 20 22 17 23 19 24 18 25
REMARK H PARENT 4 4 4 5 7 10 15 26
ROOT
ATOM      1  C   UNL     1      -1.702  -0.863  -0.590  1.00  0.00     0.206 C 
ENDROOT
BRANCH   1   2
ATOM      2  C   UNL     1      -1.906   0.145   0.552  1.00  0.00     0.296 C 
BRANCH   2   3
ATOM      3  N   UNL     1      -3.328   0.021   1.041  1.00  0.00    -0.342 N 
ATOM      4  H   UNL     1      -3.377   0.227   2.047  1.00  0.00     0.346 HD
ATOM      5  H   UNL     1      -3.521  -0.997   0.956  1.00  0.00     0.346 HD
BRANCH   3   6
ATOM      6  C   UNL     1      -4.378   0.783   0.293  1.00  0.00     0.176 C 
ATOM      7  C   UNL     1      -4.333   2.249   0.707  1.00  0.00     0.075 C 
ATOM      8  C   UNL     1      -5.730   0.161   0.618  1.00  0.00     0.075 C 
ENDBRANCH   3   6
ENDBRANCH   2   3
ENDBRANCH   1   2
BRANCH   1   9
ATOM      9  O   UNL     1      -2.371  -2.078  -0.208  1.00  0.00    -0.384 OA
ATOM     10  H   UNL     1      -2.147  -2.763  -0.871  1.00  0.00     0.211 HD
ENDBRANCH   1   9
BRANCH   1  11
ATOM     11  C   UNL     1      -0.215  -1.087  -0.875  1.00  0.00     0.267 C 
BRANCH  11  12
ATOM     12  O   UNL     1       0.370   0.182  -1.181  1.00  0.00    -0.490 OA
BRANCH  12  13
ATOM     13  C   UNL     1       1.635  -0.014  -1.700  1.00  0.00     0.129 A 
ATOM     14  C   UNL     1       1.762  -0.099  -3.092  1.00  0.00     0.047 A 
ATOM     15  C   UNL     1       2.782  -0.083  -0.875  1.00  0.00     0.049 A 
ATOM     16  C   UNL     1       3.009  -0.311  -3.672  1.00  0.00     0.006 A 
ATOM     17  C   UNL     1       4.013  -0.309  -1.495  1.00  0.00     0.050 A 
ATOM     18  C   UNL     1       3.033   0.032   0.533  1.00  0.00     0.011 A 
ATOM     19  C   UNL     1       4.156  -0.432  -2.883  1.00  0.00     0.027 A 
ATOM     20  N   UNL     1       4.963  -0.370  -0.504  1.00  0.00    -0.354 N 
ATOM     21  C   UNL     1       4.399  -0.169   0.732  1.00  0.00     0.047 A 
ATOM     22  C   UNL     1       2.229   0.297   1.663  1.00  0.00     0.011 A 
ATOM     23  C   UNL     1       4.997  -0.140   1.998  1.00  0.00     0.027 A 
ATOM     24  C   UNL     1       2.809   0.332   2.937  1.00  0.00     0.001 A 
ATOM     25  C   UNL     1       4.174   0.112   3.098  1.00  0.00     0.002 A 
ATOM     26  H   UNL     1       5.949  -0.525  -0.664  1.00  0.00     0.167 HD
ENDBRANCH  12  13
ENDBRANCH  11  12
ENDBRANCH   1  11
TORSDOF 7
